TITLE = "Synthetic Model for explicit simulation of 37Ar and 222Rn"
VARIABLES ="X","Y","Z","Zone","3DNode#","Head","Depth","LogDepth","Vx","Vy","Vz","Specified Flux","Exchange flux"
# X units: (m)
# Y units: (m)
# Z units: (m)
# Head units: (m)
# Depth units: (m)
# LogDepth units: (m)
# Vx units: (m d^-1)
# Vy units: (m d^-1)
# Vz units: (m d^-1)
# Specified Flux units: (m d^-1)
# Exchange flux units: (m d^-1)
VARAUXDATA 1 Units="(m)"
VARAUXDATA 2 Units="(m)"
VARAUXDATA 3 Units="(m)"
VARAUXDATA 6 Units="(m)"
VARAUXDATA 7 Units="(m)"
VARAUXDATA 8 Units="(m)"
VARAUXDATA 9 Units="(m d^-1)"
VARAUXDATA 10 Units="(m d^-1)"
VARAUXDATA 11 Units="(m d^-1)"
VARAUXDATA 12 Units="(m d^-1)"
VARAUXDATA 13 Units="(m d^-1)"
ZONE T="olf", SOLUTIONTIME=3.6500000000E+02, DATAPACKING=BLOCK, N=7015, E=13600, ZONETYPE=FEQUADRILATERAL, VARLOCATION=([4,      9,     10,     11]=CELLCENTERED)
# x
   0.0000000000000000        5.0000020000000003        2.7105999999999999        0.0000000000000000        10.000004000000001     
   7.0429389999999996        3.7506059999999999        0.0000000000000000        0.0000000000000000        15.000006000000001     
   11.728778000000000        8.3832609999999992        4.5378619999999996        20.000008000000001        0.0000000000000000     
   4.9464119999999996        16.733913000000001        13.451438000000000        9.7069989999999997        300.00012199999998     
   25.000010000000000        0.0000000000000000        21.760451000000000        4.9794450000000001        9.8811859999999996     
   18.527913000000002        15.112427000000000        0.0000000000000000        300.00012199999998        297.50855799999999     
   300.00012199999998        30.000012000000002        26.904942999999999        35.000014000000000        4.8994640000000000     
   23.913618000000000        9.6803360000000005        14.131071000000000        21.034669000000001        19.025670999999999     
   0.0000000000000000        4.8620219999999996        297.17316299999999        295.00011999999998        292.49088300000000     
   300.00012199999998        297.12475999999998        32.083260000000003        29.293158999999999        40.000016000000002     
   37.249329000000003        45.000017999999997        9.5531729999999992        26.652505000000001        14.029347000000000     
   17.908370999999999        24.412825999999999        22.465978000000000        0.0000000000000000        4.9121420000000002     
   9.6867809999999999        294.60025100000001        292.13932699999998        290.00011799999999        300.00012199999998     
   300.00012199999998        300.00012199999998        297.09032500000001        294.43056100000001        34.638573000000001     
   32.143062999999998        42.400486000000001        39.924574999999997        50.000019999999999        47.503861000000001     
   55.000022000000001        60.000024000000003        65.000026000000005        14.454971000000000        29.850428999999998     
   19.381153999999999        27.698837000000001        24.876076000000001        0.0000000000000000        0.0000000000000000     
   4.8759300000000003        9.5655680000000007        14.133770999999999        300.00012199999998        300.00012199999998     
   300.00012199999998        291.82101000000000        289.42840500000000        287.51458700000001        297.06653699999998     
   297.07759099999998        297.08152200000001        294.37139000000002        291.70335599999999        37.609200000000001     
   35.335374000000002        45.185301000000003        42.961356000000002        52.628284999999998        50.291361999999999     
   57.739393999999997        62.488759999999999        70.000028000000000        67.490380000000002        18.689482999999999     
   33.197620000000001        23.326509000000001        30.929241000000001        28.429251000000001        0.0000000000000000     
   4.8234740000000000        4.4874020000000003        9.4783849999999994        13.935732000000000        18.392634999999999     
   75.000031000000007        80.000033000000002        300.00012199999998        300.00012199999998        297.07522799999998     
   297.22717699999998        297.08291100000002        288.97753100000000        286.79890200000000        285.00011599999999     
   294.34566699999999        294.34495399999997        294.39357600000000        291.82305900000000        289.38388700000002     
   38.655172999999998        40.869790000000002        48.404328999999997        46.129713000000002        55.413237000000002     
   53.557254999999998        60.034435000000002        64.910139999999998        72.563456000000002        70.078001999999998     
   22.826279000000000        36.651727000000001        27.320239000000001        34.697772000000001        31.851689000000000     
   22.933458999999999        0.0000000000000000        4.8706319999999996        9.2956459999999996        13.838887000000000     
   18.389008000000000        85.000034999999997        90.000037000000006        95.000039000000001        100.00004100000000     
   77.461055000000002        82.198410999999993        105.00004300000001        300.00012199999998        297.01475799999997     
   297.14327400000002        294.44782099999998        294.38207599999998        287.10144000000003        285.83394399999997     
   283.90705400000002        282.61985099999998        291.76985100000002        291.68993699999999        291.72822700000000     
   289.16894700000000        286.69591000000003        41.723866000000001        44.203896000000000        45.203342999999997     
   49.119219999999999        52.158923000000001        58.033209999999997        63.065353000000002        67.620987000000000     
   75.008308999999997        72.264364999999998        27.530135999999999        40.239992999999998        32.217936000000002     
   36.699931999999997        27.746908000000001        23.106262999999998        0.0000000000000000        4.9097949999999999     
   9.5980050000000006        13.962253000000000        18.513531000000000        87.251121999999995        92.416576000000006     
   97.509017000000000        102.57000600000001        79.970859000000004        84.511966000000001        110.00004500000000     
   115.00004700000000        107.59897900000000        120.00004900000000        300.00012199999998        300.00012199999998     
   300.00012199999998        297.16546199999999        294.25280199999997        294.58595100000002        291.77342399999998     
   291.82495000000000        284.42269299999998        282.60063100000002        280.68925100000001        280.00011400000000     
   289.15276299999999        289.04910999999998        289.03280899999999        286.41495300000003        283.84065399999997     
   45.238976000000001        48.709612000000000        53.614663999999998        56.929115000000003        62.031238000000002     
   67.903219000000007        77.339810000000000        73.717271999999994        32.453183000000003        45.485855000000001     
   41.380429999999997        37.086654000000003        32.670814000000000        27.959509000000001        23.304797000000001     
   0.0000000000000000        4.9343919999999999        9.7062510000000000        14.250529000000000        18.725639999999999     
   125.00005100000000        130.00005300000001        89.739239999999995        94.848275000000001        99.972983999999997     
   105.12562800000001        86.859453999999999        82.589391000000006        112.57200100000000        117.48446199999999     
   110.26423500000000        122.46537400000000        300.00012199999998        297.22917699999999        297.06184500000001     
   294.59346599999998        292.33637700000003        291.45958500000000        289.09116999999998        289.31626199999999     
   281.26224000000002        278.98243400000001        277.05080099999998        275.00011200000000        270.00011000000001     
   286.66598199999999        286.42912600000000        286.34497900000002        283.57097099999999        280.65791300000001     
   265.00010800000001        260.00010600000002        50.159387000000002        54.288943000000003        59.018861999999999     
   65.251760000000004        70.635876999999994        79.267407000000006        76.063914999999994        37.367480000000000     
   50.481001999999997        46.204028000000001        41.882258999999998        37.594276000000001        32.866450000000000     
   28.147306000000000        23.528348999999999        0.0000000000000000        4.9647240000000004        9.7983890000000002     
   14.458678000000001        19.002504999999999        0.0000000000000000        135.00005500000000        140.00005700000000     
   127.35994599999999        132.23230300000000        145.00005899999999        150.00006099999999        91.958063999999993     
   97.106863000000004        102.37150800000001        107.77847300000001        88.352011000000005        84.610281999999998     
   115.29568100000000        120.03246300000001        113.35187200000000        124.53898200000000        122.11989600000000     
   155.00006300000001        235.00009600000001        255.00010399999999        250.00010200000000        245.00010000000000     
   240.00009800000001        300.00012199999998        297.31284799999997        295.03723900000000        294.08031599999998     
   291.72238499999997        289.67319400000002        288.05863699999998        286.51646399999998        277.68092500000000     
   275.09425900000002        272.69080700000001        267.97090900000001        284.33654999999999        283.72706699999998     
   283.48823399999998        280.36541799999998        277.18522000000002        262.77873799999998        257.63592499999999     
   55.037514999999999        59.026082000000002        62.983834000000002        67.936238000000003        72.993104000000002     
   81.453125000000000        78.271820000000005        42.264221999999997        55.379576999999998        51.066392999999998     
   46.745849000000000        42.507911999999997        37.774208999999999        32.992871000000001        28.337024000000000     
   23.790029000000001        5.0080400000000003        9.9041610000000002        14.653127000000000        19.262899999999998     
   0.0000000000000000        5.0138879999999997        137.16106500000001        142.14863700000001        129.20937599999999     
   134.07734400000001        147.17558399999999        152.17474400000000        93.843406999999999        99.192644000000001     
   110.28002499999999        104.65556500000000        90.393326999999999        86.927733000000003        119.13458000000000     
   116.03182600000000        112.72699299999999        124.78155700000001        160.00006500000001        157.26229499999999     
   200.00008099999999        205.00008299999999        230.00009399999999        210.00008500000001        215.00008700000001     
   225.00009200000000        220.00009000000000        237.46725599999999        232.36431500000000        252.48582400000001     
   247.43918500000001        242.67896300000001        300.00012199999998        297.06707000000000        294.57469200000003     
   292.47211800000002        290.86171700000000        288.79065600000001        286.77659100000000        285.16021100000000     
   283.12174399999998        273.67165599999998        270.70666999999997        265.76461899999998        281.07013400000000     
   280.34251499999999        276.95982199999997        273.51893000000001        260.48436099999998        255.19735700000001     
   60.227603000000002        64.335430000000002        69.532000999999994        74.896693999999997        83.694992999999997     
   80.330792000000002        47.224887000000003        60.094974000000001        55.875267999999998        51.657380000000003     
   47.430098000000001        42.681969000000002        37.803801000000000        33.129322999999999        28.582080999999999     
   0.0000000000000000        24.084848999999998        10.020505000000000        14.860782000000000        19.542621000000000     
   4.9817669999999996        9.9950119999999991        139.10383400000001        144.25686600000000        130.26180900000000     
   135.66243600000001        149.41063000000000        154.43091899999999        95.984341999999998        101.34432200000001     
   106.93946300000000        92.663853000000003        89.277133000000006        121.59869000000000        118.29971000000000     
   109.29902100000000        114.78641700000000        127.08205400000000        165.00006700000000        170.00006900000000     
   175.00007099999999        180.00007299999999        185.00007500000001        190.00007700000000        195.00007900000000     
   162.41066900000001        159.66251099999999        197.70828299999999        202.75286100000000        240.12855099999999     
   207.73199399999999        227.36526400000000        212.66696099999999        217.52476700000000        222.39868000000001     
   235.04032500000000        230.07903999999999        300.00012199999998        300.00012199999998        249.88881599999999     
   244.63973500000000        297.08763800000003        294.20166799999998        291.79832599999997        289.68204800000001     
   287.86875199999997        285.89009099999998        283.78113700000000        281.60539999999997        279.52354600000001     
   269.01179700000000        263.59759800000000        277.16319199999998        273.43685599999998        269.89828199999999     
   258.12317800000000        252.85819100000001        65.717763000000005        71.454117999999994        76.946010999999999     
   85.860853000000006        82.420488000000006        64.266932999999995        52.293700999999999        60.538623999999999     
   56.578951000000004        52.332084000000002        47.613191000000000        42.551318999999999        0.0000000000000000     
   37.888464999999997        33.374549000000002        28.909365999999999        4.9401799999999998        24.440747999999999     
   15.069315000000000        19.859362000000001        9.8901970000000006        14.887638000000001        141.16371699999999     
   146.52945600000001        132.42505100000000        138.16973300000001        156.73878400000001        151.81978799999999     
   98.293380999999997        103.49766700000001        95.064102000000005        91.492739000000000        105.86966099999999     
   123.77857299999999        120.14819600000000        111.15932900000000        116.42590700000000        129.24403300000000     
   167.59696900000000        172.76427100000001        177.93202400000001        183.00501000000000        187.90402200000000     
   192.47185999999999        164.97049300000000        162.25377499999999        159.30098599999999        195.24061900000001     
   200.16551999999999        205.17447000000001        238.42123500000000        210.19187099999999        225.08219399999999     
   215.18310399999999        220.05982599999999        233.31743200000000        228.26407300000000        300.00012199999998     
   297.30188299999998        247.58480700000001        242.39531299999999        294.85111899999998        292.46373699999998     
   290.78452099999998        288.75534900000002        286.78926200000001        284.97929900000003        282.72237799999999     
   280.20004999999998        277.62479000000002        275.80585200000002        265.45996200000002        260.83930099999998     
   272.48475800000000        268.71417000000002        250.76947500000000        255.58319499999999        258.71925599999997     
   300.00012199999998        300.00012199999998        68.929616999999993        73.938739999999996        79.134607000000003     
   87.956117000000006        84.476174000000000        65.600528999999995        57.624440999999997        61.730061999999997     
   60.016616999999997        52.557125999999997        56.971910000000001        47.183449000000003        0.0000000000000000     
   0.0000000000000000        42.603907000000000        4.9075230000000003        38.174928999999999        33.766813999999997     
   29.344123000000000        9.8065140000000000        24.879909000000001        20.199280000000002        14.659630000000000     
   19.539771999999999        51.633017000000002        143.65172999999999        149.01696300000000        135.31368900000001     
   140.74517599999999        154.48891300000000        100.88056200000000        97.181909000000005        93.525058999999999     
   106.97462700000000        125.41560100000000        121.64025300000000        112.46658400000000        117.79802100000001     
   133.12566200000001        129.90327300000001        170.22609499999999        175.59780100000000        180.86818000000000     
   186.02876499999999        191.07412299999999        167.41019200000000        164.38896199999999        159.90093700000000     
   196.54738000000000        201.96746400000001        207.23729800000001        237.16234000000000        212.47462300000001     
   223.09246700000000        217.78263100000001        232.17032000000000        227.28073699999999        297.20383900000002     
   294.71475900000002        245.47835699999999        240.66274999999999        292.20385800000003        289.81117399999999     
   287.86678300000000        285.90570900000000        283.84550899999999        281.79799200000002        279.06634300000002     
   275.90357000000000        272.69927799999999        263.62807500000002        268.28917500000000        248.93258700000001     
   253.78211999999999        258.60557599999999        297.12332099999998        300.00012199999998        297.07835399999999     
   70.613327999999996        75.763625000000005        81.005076000000003        89.941383000000002        86.361847999999995     
   67.007497000000001        63.180712999999997        61.426906000000002        57.655576000000003        47.277912000000001     
   4.9104770000000002        4.7576980000000004        0.0000000000000000        43.002333999999998        9.7812649999999994     
   38.694850000000002        34.342277000000003        29.932133000000000        14.574171000000000        25.438130000000001     
   19.143363000000001        23.477955999999999        55.746307999999999        51.929552000000001        145.95723200000000     
   151.00504400000000        138.19967800000001        143.24567999999999        155.90292199999999        102.64063200000000     
   99.020757000000003        95.424199000000002        108.42070500000000        126.52782100000000        122.95283100000000     
   113.90188900000000        119.21229700000001        135.21931400000000        131.72170299999999        172.94945799999999     
   178.26763299999999        183.45189300000001        188.53457800000001        193.35912300000001        170.19966500000001     
   167.82674499999999        164.05996700000000        160.10833299999999        198.65050600000001        203.87522100000001     
   208.89784000000000        235.67940500000000        213.65519200000000        222.36242400000000        217.94536700000000     
   230.84252699999999        225.76450700000001        294.52839399999999        291.98642799999999        244.23962700000001     
   239.31737300000000        289.48011200000002        287.13355799999999        285.07510600000001        282.78662400000002     
   280.45857100000001        278.39286499999997        275.24401499999999        271.74316099999999        267.89666399999999     
   263.31666700000000        248.97832000000000        253.73562200000001        258.44181600000002        294.40472699999998     
   300.00012199999998        300.00012199999998        297.07654100000002        294.35167400000000        300.00012199999998     
   300.00012199999998        300.00012199999998        300.00012199999998        300.00012199999998        72.311976999999999     
   77.583962000000000        82.879976999999997        91.850194000000002        88.273263999999998        68.988111000000004     
   66.447371000000004        63.363394999999997        60.411983999999997        47.896338000000000        9.8298819999999996     
   9.3214539999999992        4.6442980000000000        0.0000000000000000        43.736080999999999        14.725216000000000     
   39.514958000000000        35.270696000000001        31.045825000000001        19.510581999999999        27.981843999999999     
   23.976887000000001        56.981687999999998        53.051234000000001        148.16631000000001        152.72328800000000     
   140.53246600000000        145.91316599999999        156.45176300000000        104.44906899999999        100.89602800000000     
   97.337338000000003        110.00415300000000        128.19537800000001        124.55592500000000        115.38231200000000     
   120.75035500000000        137.12071800000001        133.56143200000000        175.49807200000001        180.64744200000001     
   185.71313499999999        190.62496500000000        195.66042800000000        172.72936999999999        169.14859500000000     
   165.15285200000000        161.27258800000001        200.86686399999999        206.05743500000000        211.15764600000000     
   234.13803700000000        216.02566400000001        220.72123700000000        228.77743500000000        223.67801200000000     
   291.80512499999998        289.27164800000003        244.02312499999999        239.09389200000001        286.79932600000001     
   284.37933600000002        281.81139500000000        278.96510699999999        275.96071899999998        271.76181000000003     
   267.40630800000002        263.04777700000000        248.80700899999999        253.46085600000001        258.25284799999997     
   291.69281599999999        297.09338200000002        294.34244799999999        291.63855500000000        297.06076600000000     
   297.05108999999999        297.05207799999999        297.10361799999998        300.00012199999998        300.00012199999998     
   297.21631500000001        300.00012199999998        74.380799999999994        79.664396999999994        84.970129999999997     
   93.821354999999997        90.293661000000000        71.699072999999999        68.769153000000003        65.266189999999995     
   61.974713000000001        48.941097999999997        14.720993000000000        13.530222000000000        9.1748879999999993     
   4.6736760000000004        0.0000000000000000        44.793342000000003        19.532851000000001        40.654727000000001     
   36.556913000000002        32.889797000000002        24.475151000000000        28.897988999999999        58.324187000000002     
   54.243392000000000        151.44732200000001        142.46382700000001        147.76800100000000        156.87199000000001     
   106.27948900000000        102.77813100000000        99.212746999999993        111.60330500000001        129.99353900000000     
   126.25904600000000        116.89628000000000        122.29701799999999        138.94204900000000        135.46015000000000     
   177.70160999999999        182.69551400000000        187.64283000000000        192.66986000000000        197.81637300000000     
   174.25231099999999        170.40478300000001        166.40158099999999        162.22272400000000        203.06001000000001     
   208.33700800000000        234.95386900000000        213.57908699999999        230.09110799999999        219.06476799999999     
   224.72991800000000        289.12160399999999        286.64836500000001        243.96641299999999        239.72432699999999     
   284.09389399999998        281.27590900000001        278.24133599999999        275.05155300000001        272.01348600000000     
   267.65559800000000        262.65372600000001        247.99930100000000        252.76252400000001        257.44457499999999     
   289.02403199999998        294.32162399999999        291.60007000000002        288.95984299999998        294.28546200000000     
   294.27675199999999        294.33116100000001        294.48371400000002        297.15415999999999        294.74171400000000     
   300.00012199999998        297.35687100000001        76.889943000000002        82.193548000000007        87.376017000000004     
   95.780333999999996        92.395668000000001        74.316096999999999        69.987836000000001        74.441850000000002     
   66.942660000000004        63.564158999999997        50.123970000000000        18.443528000000001        14.228353000000000     
   9.5695470000000000        4.8348769999999996        0.0000000000000000        46.049436999999998        22.877983000000000     
   42.042177000000002        38.228071000000000        27.126581999999999        34.411374000000002        30.564955000000001     
   23.150407000000001        59.514212000000001        55.406765999999998        152.91510199999999        144.17144300000001     
   149.22587999999999        158.17295700000000        108.01120299999999        104.45555800000000        100.57262000000000     
   113.16986199999999        131.90619599999999        128.00278499999999        118.35070700000000        123.89300000000000     
   137.60165900000001        140.85686899999999        179.31382300000001        184.33950500000000        189.40070499999999     
   194.55024900000001        199.78321900000000        175.59923800000001        171.64741200000000        167.49729400000001     
   163.33115500000000        205.07323299999999        210.36529400000001        237.01315000000000        231.82217000000000     
   215.75192100000001        226.51898499999999        220.96259599999999        286.52650799999998        284.00095399999998     
   243.09950499999999        281.06366900000000        277.75279499999999        274.04981900000001        269.72182600000002     
   264.16446200000001        259.12203299999999        248.34013999999999        253.50757500000000        286.42721699999998     
   291.55346900000001        288.88690100000002        286.32818600000002        291.52063700000002        291.55923700000000     
   291.67787299999998        291.93373200000002        292.41726999999997        294.46293300000002        300.00012199999998     
   297.34768300000002        295.19735300000002        79.918426999999994        85.387718000000007        90.855256999999995     
   96.625041999999993        101.76041900000000        79.015972000000005        71.805301000000000        77.257683000000000     
   68.864103999999998        64.680678999999998        51.361604000000000        18.923593000000000        14.461237000000001     
   9.7323240000000002        4.9036030000000004        0.0000000000000000        47.385443000000002        27.689746000000000     
   43.518484999999998        39.692405000000001        32.018022999999999        35.840452999999997        28.126000999999999     
   23.655239999999999        60.581204000000000        56.576461999999999        154.32225299999999        145.91194999999999     
   150.60078300000001        159.18336199999999        109.67330600000000        106.07805300000000        114.53676600000000     
   133.83695399999999        129.81704300000001        119.96247200000001        125.58598400000000        139.52532700000000     
   143.45712700000001        180.73787999999999        185.87160399999999        191.05327900000000        196.30304400000000     
   201.60991300000001        176.89471100000000        172.82662800000000        168.62541899999999        164.36309299999999     
   206.94248999999999        212.30493200000001        239.36064300000001        233.71060600000001        228.34661299999999     
   217.59100300000000        222.91908500000000        283.86638599999998        281.12232000000000        244.54408300000000     
   277.81457599999999        274.19756899999999        270.19874600000003        265.46393699999999        260.35580399999998     
   255.14964699999999        249.77153600000000        283.66936099999998        288.81897700000002        286.20862399999999     
   283.44887100000000        288.83603499999998        288.91546000000000        289.11789700000003        289.67962599999998     
   291.10541300000000        292.59183600000000        300.00012199999998        297.00814800000001        294.52460000000002     
   83.994377000000000        89.219711000000004        94.724378999999999        99.994429999999994        105.85534800000001     
   82.314808999999997        80.293710000000004        74.910286999999997        72.962073000000004        69.320300000000003     
   65.497354000000001        52.623778999999999        19.232647000000000        14.629053000000001        9.8482430000000001     
   4.9634770000000001        0.0000000000000000        48.736806000000001        32.729756999999999        44.892909000000003     
   41.015666000000003        37.037410999999999        33.129151999999998        28.536798999999998        24.019753000000001     
   61.657837999999998        57.778404000000002        154.92320900000001        149.31359599999999        159.98735400000001     
   110.89671600000000        116.42437800000000        135.67963499999999        131.50434700000000        121.86949900000000     
   127.17739200000000        140.99122199999999        145.28503200000000        182.11865100000000        187.35284899999999     
   192.63153600000001        197.96561100000000        203.34366199999999        178.16605999999999        174.01483099999999     
   169.71555200000000        165.32450900000001        208.75128200000000        241.13653099999999        214.11241300000000     